<?xml version="1.0" encoding="UTF-8"?>

<!-- generated on 2023-12-18 16:29:44 by Eclipse SUMO GUI Version 1.18.0
<configuration xmlns:xsi="http://www.w3.org/2001/XMLSchema-instance" xsi:noNamespaceSchemaLocation="http://sumo.dlr.de/xsd/sumoConfiguration.xsd">

    <input>
        <net-file value="C:\D\SUMO\PriorityLane\sumo_configs\Grid1.net.xml"/>
        <route-files value="C:\D\SUMO\PriorityLane\sumo_configs\routes.rou.xml"/>
        <additional-files value="C:\D\SUMO\PriorityLane\sumo_configs\loopDetectors.add.xml"/>
    </input>

</configuration>
-->

<detector xmlns:xsi="http://www.w3.org/2001/XMLSchema-instance" xsi:noNamespaceSchemaLocation="http://sumo.dlr.de/xsd/det_e1_file.xsd">
    <interval begin="0.00" end="2076.00" id="myLoop1" nVehContrib="42" flow="72.83" occupancy="3.30" speed="5.44" harmonicMeanSpeed="3.06" length="5.00" nVehEntered="42"/>
    <interval begin="0.00" end="2076.00" id="myLoop2" nVehContrib="38" flow="65.90" occupancy="4.39" speed="3.20" harmonicMeanSpeed="2.16" length="5.00" nVehEntered="41"/>
    <interval begin="0.00" end="2076.00" id="myLoop3" nVehContrib="111" flow="192.49" occupancy="7.98" speed="4.48" harmonicMeanSpeed="3.35" length="5.00" nVehEntered="112"/>
</detector>
